<?xml version="1.0" encoding="UTF-8"?>

<!-- generated on 2026-03-30 11:53:41 by Eclipse SUMO GUI Version 1.18.0
<configuration xmlns:xsi="http://www.w3.org/2001/XMLSchema-instance" xsi:noNamespaceSchemaLocation="http://sumo.dlr.de/xsd/sumoConfiguration.xsd">

    <input>
        <net-file value="sumo/scenarios/../networks/city.net.xml"/>
        <route-files value="/home/vivek/research/NIT hackathon/final_year_project/sumo/routes/city_passenger.rou.xml,/home/vivek/research/NIT hackathon/final_year_project/sumo/routes/city_freight.rou.xml,/home/vivek/research/NIT hackathon/final_year_project/sumo/scenarios/demo_controlled_group.rou.xml,/home/vivek/research/NIT hackathon/final_year_project/sumo/scenarios/demo_emergency_group.rou.xml"/>
        <additional-files value="/home/vivek/research/NIT hackathon/final_year_project/sumo/scenarios/demo_rsu_pois.add.xml"/>
        <junction-taz value="true"/>
    </input>

    <output>
        <summary-output value="/home/vivek/research/NIT hackathon/final_year_project/evaluation/hackathon_kpi/ai_demo_summary.xml"/>
        <tripinfo-output value="/home/vivek/research/NIT hackathon/final_year_project/evaluation/hackathon_kpi/ai_demo_tripinfo.xml"/>
        <statistic-output value="/home/vivek/research/NIT hackathon/final_year_project/evaluation/hackathon_kpi/ai_demo_statistics.xml"/>
    </output>

    <time>
        <begin value="0"/>
        <end value="3600"/>
        <step-length value="1.0"/>
    </time>

    <processing>
        <scale value="1.3"/>
    </processing>

    <traci_server>
        <remote-port value="40593"/>
    </traci_server>

    <random_number>
        <seed value="42"/>
    </random_number>

    <gui_only>
        <gui-settings-file value="sumo/scenarios/city_3d.settings.xml"/>
    </gui_only>

</configuration>
-->

<tripinfos xmlns:xsi="http://www.w3.org/2001/XMLSchema-instance" xsi:noNamespaceSchemaLocation="http://sumo.dlr.de/xsd/tripinfo_file.xsd">
    <tripinfo id="p_3" depart="5.00" departLane="142575690#7_1" departPos="43.58" departSpeed="8.41" departDelay="0.50" arrival="72.00" arrivalLane="-71028777#2_1" arrivalPos="95.58" arrivalSpeed="14.67" duration="67.00" routeLength="705.89" waitingTime="4.00" waitingCount="1" stopTime="0.00" timeLoss="18.23" rerouteNo="0" devices="tripinfo_p_3" vType="DEFAULT_VEHTYPE" speedFactor="1.08" vaporized=""/>
    <tripinfo id="p_21" depart="32.00" departLane="-142575704#1_1" departPos="10.65" departSpeed="13.47" departDelay="0.50" arrival="72.00" arrivalLane="318210377#0_1" arrivalPos="0.33" arrivalSpeed="13.08" duration="40.00" routeLength="316.28" waitingTime="4.00" waitingCount="1" stopTime="0.00" timeLoss="15.09" rerouteNo="0" devices="tripinfo_p_21" vType="DEFAULT_VEHTYPE" speedFactor="0.97" vaporized=""/>
    <tripinfo id="p_3.1" depart="5.00" departLane="142575690#7_1" departPos="33.47" departSpeed="5.51" departDelay="0.50" arrival="74.00" arrivalLane="-71028777#2_1" arrivalPos="95.58" arrivalSpeed="14.08" duration="69.00" routeLength="716.00" waitingTime="0.00" waitingCount="0" stopTime="0.00" timeLoss="16.83" rerouteNo="0" devices="tripinfo_p_3.1" vType="DEFAULT_VEHTYPE" speedFactor="1.03" vaporized=""/>
    <tripinfo id="p_31" depart="47.00" departLane="-143308505#2_1" departPos="7.09" departSpeed="16.01" departDelay="0.50" arrival="85.00" arrivalLane="172014854#1_1" arrivalPos="37.02" arrivalSpeed="15.69" duration="38.00" routeLength="523.08" waitingTime="0.00" waitingCount="0" stopTime="0.00" timeLoss="3.80" rerouteNo="0" devices="tripinfo_p_31" vType="DEFAULT_VEHTYPE" speedFactor="1.15" vaporized=""/>
    <tripinfo id="t_6" depart="48.00" departLane="-143308505#2_1" departPos="9.62" departSpeed="4.97" departDelay="0.00" arrival="92.00" arrivalLane="142575704#9_1" arrivalPos="52.82" arrivalSpeed="14.22" duration="44.00" routeLength="437.12" waitingTime="0.00" waitingCount="0" stopTime="0.00" timeLoss="11.60" rerouteNo="0" devices="tripinfo_t_6" vType="t__truck" speedFactor="1.03" vaporized=""/>
    <tripinfo id="p_9" depart="14.00" departLane="48858193#0_1" departPos="3.93" departSpeed="13.81" departDelay="0.50" arrival="93.00" arrivalLane="314415495#8_1" arrivalPos="34.21" arrivalSpeed="12.55" duration="79.00" routeLength="921.87" waitingTime="0.00" waitingCount="0" stopTime="0.00" timeLoss="9.17" rerouteNo="0" devices="tripinfo_p_9" vType="DEFAULT_VEHTYPE" speedFactor="0.99" vaporized=""/>
    <tripinfo id="p_27" depart="41.00" departLane="314415495#0_1" departPos="25.70" departSpeed="14.98" departDelay="0.50" arrival="103.00" arrivalLane="142575667#0_2" arrivalPos="94.91" arrivalSpeed="14.77" duration="62.00" routeLength="746.12" waitingTime="0.00" waitingCount="0" stopTime="0.00" timeLoss="8.79" rerouteNo="0" devices="tripinfo_p_27" vType="DEFAULT_VEHTYPE" speedFactor="1.08" vaporized=""/>
    <tripinfo id="t_2" depart="16.00" departLane="143308505#0_1" departPos="17.23" departSpeed="7.72" departDelay="0.00" arrival="110.00" arrivalLane="-318210378#4_1" arrivalPos="87.86" arrivalSpeed="12.59" duration="94.00" routeLength="898.49" waitingTime="0.00" waitingCount="0" stopTime="0.00" timeLoss="21.02" rerouteNo="0" devices="tripinfo_t_2" vType="t__truck" speedFactor="0.95" vaporized=""/>
    <tripinfo id="p_4" depart="6.00" departLane="142575655#9_1" departPos="12.28" departSpeed="6.40" departDelay="0.00" arrival="114.00" arrivalLane="26991766#0_1" arrivalPos="48.84" arrivalSpeed="13.96" duration="108.00" routeLength="1094.25" waitingTime="8.00" waitingCount="1" stopTime="0.00" timeLoss="35.37" rerouteNo="0" devices="tripinfo_p_4" vType="DEFAULT_VEHTYPE" speedFactor="1.13" vaporized=""/>
    <tripinfo id="t_5" depart="41.00" departLane="142575684#1_1" departPos="5.92" departSpeed="4.68" departDelay="1.00" arrival="117.00" arrivalLane="142575692#0_1" arrivalPos="86.98" arrivalSpeed="13.79" duration="76.00" routeLength="807.65" waitingTime="0.00" waitingCount="0" stopTime="0.00" timeLoss="16.00" rerouteNo="0" devices="tripinfo_t_5" vType="t__truck" speedFactor="1.02" vaporized=""/>
    <tripinfo id="p_11" depart="17.00" departLane="52081075#7_1" departPos="23.42" departSpeed="7.08" departDelay="0.50" arrival="124.00" arrivalLane="-147859765#2_1" arrivalPos="62.65" arrivalSpeed="12.21" duration="107.00" routeLength="871.34" waitingTime="11.00" waitingCount="3" stopTime="0.00" timeLoss="36.45" rerouteNo="0" devices="tripinfo_p_11" vType="DEFAULT_VEHTYPE" speedFactor="0.94" vaporized=""/>
    <tripinfo id="p_54" depart="81.00" departLane="-142575710#4_1" departPos="4.61" departSpeed="5.84" departDelay="0.00" arrival="125.00" arrivalLane="46424277_1" arrivalPos="3.96" arrivalSpeed="4.49" duration="44.00" routeLength="400.96" waitingTime="0.00" waitingCount="0" stopTime="0.00" timeLoss="9.64" rerouteNo="0" devices="tripinfo_p_54" vType="DEFAULT_VEHTYPE" speedFactor="0.94" vaporized=""/>
    <tripinfo id="p_0.1" depart="1.00" departLane="-142575656#10_1" departPos="2.93" departSpeed="11.55" departDelay="1.00" arrival="126.00" arrivalLane="670062912#0_2" arrivalPos="4.35" arrivalSpeed="7.23" duration="125.00" routeLength="733.49" waitingTime="48.00" waitingCount="2" stopTime="0.00" timeLoss="72.66" rerouteNo="0" devices="tripinfo_p_0.1" vType="DEFAULT_VEHTYPE" speedFactor="1.07" vaporized=""/>
    <tripinfo id="t_1" depart="8.00" departLane="-135777010#2_1" departPos="10.90" departSpeed="13.41" departDelay="0.00" arrival="127.00" arrivalLane="-142575688#0_1" arrivalPos="43.21" arrivalSpeed="9.02" duration="119.00" routeLength="1226.31" waitingTime="1.00" waitingCount="1" stopTime="0.00" timeLoss="23.98" rerouteNo="0" devices="tripinfo_t_1" vType="t__truck" speedFactor="0.97" vaporized=""/>
    <tripinfo id="p_0" depart="0.00" departLane="-142575656#10_1" departPos="5.97" departSpeed="13.17" departDelay="0.00" arrival="130.00" arrivalLane="670062912#0_2" arrivalPos="4.35" arrivalSpeed="6.43" duration="130.00" routeLength="730.45" waitingTime="49.00" waitingCount="2" stopTime="0.00" timeLoss="71.42" rerouteNo="0" devices="tripinfo_p_0" vType="DEFAULT_VEHTYPE" speedFactor="0.95" vaporized=""/>
    <tripinfo id="p_28" depart="42.00" departLane="-143308527#3_1" departPos="0.04" departSpeed="13.09" departDelay="0.00" arrival="130.00" arrivalLane="52081075#3_1" arrivalPos="36.64" arrivalSpeed="12.72" duration="88.00" routeLength="544.55" waitingTime="31.00" waitingCount="2" stopTime="0.00" timeLoss="44.22" rerouteNo="0" devices="tripinfo_p_28" vType="DEFAULT_VEHTYPE" speedFactor="0.94" vaporized=""/>
    <tripinfo id="p_36" depart="54.00" departLane="143308546#15_2" departPos="27.69" departSpeed="13.25" departDelay="0.00" arrival="130.00" arrivalLane="-190083616_1" arrivalPos="92.88" arrivalSpeed="13.10" duration="76.00" routeLength="609.83" waitingTime="17.00" waitingCount="2" stopTime="0.00" timeLoss="29.20" rerouteNo="0" devices="tripinfo_p_36" vType="DEFAULT_VEHTYPE" speedFactor="0.95" vaporized=""/>
    <tripinfo id="t_8" depart="64.00" departLane="-142575704#11_1" departPos="15.23" departSpeed="15.90" departDelay="0.00" arrival="130.00" arrivalLane="142575688#2_1" arrivalPos="0.80" arrivalSpeed="12.20" duration="66.00" routeLength="681.59" waitingTime="0.00" waitingCount="0" stopTime="0.00" timeLoss="20.61" rerouteNo="0" devices="tripinfo_t_8" vType="t__truck" speedFactor="1.15" vaporized=""/>
    <tripinfo id="p_22" depart="33.00" departLane="-52081075#8_1" departPos="19.35" departSpeed="14.97" departDelay="0.00" arrival="131.00" arrivalLane="143308532#5_1" arrivalPos="293.72" arrivalSpeed="14.12" duration="98.00" routeLength="1072.79" waitingTime="10.00" waitingCount="1" stopTime="0.00" timeLoss="24.29" rerouteNo="0" devices="tripinfo_p_22" vType="DEFAULT_VEHTYPE" speedFactor="1.08" vaporized=""/>
    <tripinfo id="t_3" depart="24.00" departLane="135777010#1_1" departPos="138.01" departSpeed="6.52" departDelay="0.00" arrival="131.00" arrivalLane="-142575688#3_1" arrivalPos="20.34" arrivalSpeed="10.14" duration="107.00" routeLength="1149.49" waitingTime="0.00" waitingCount="0" stopTime="0.00" timeLoss="23.60" rerouteNo="0" devices="tripinfo_t_3" vType="t__truck" speedFactor="1.05" vaporized=""/>
    <tripinfo id="p_19.1" depart="30.00" departLane="38159999#0_1" departPos="33.06" departSpeed="15.57" departDelay="1.50" arrival="138.00" arrivalLane="24733698#0_1" arrivalPos="86.18" arrivalSpeed="15.24" duration="108.00" routeLength="1218.10" waitingTime="0.00" waitingCount="0" stopTime="0.00" timeLoss="26.17" rerouteNo="0" devices="tripinfo_p_19.1" vType="DEFAULT_VEHTYPE" speedFactor="1.12" vaporized=""/>
    <tripinfo id="p_47" depart="71.00" departLane="142575656#5_1" departPos="3.16" departSpeed="15.79" departDelay="0.50" arrival="138.00" arrivalLane="142575688#5_1" arrivalPos="28.04" arrivalSpeed="15.49" duration="67.00" routeLength="513.84" waitingTime="15.00" waitingCount="1" stopTime="0.00" timeLoss="32.69" rerouteNo="0" devices="tripinfo_p_47" vType="DEFAULT_VEHTYPE" speedFactor="1.14" vaporized=""/>
    <tripinfo id="p_19" depart="29.00" departLane="38159999#0_1" departPos="0.03" departSpeed="14.58" departDelay="0.50" arrival="141.00" arrivalLane="24733698#0_1" arrivalPos="86.18" arrivalSpeed="14.30" duration="112.00" routeLength="1251.13" waitingTime="0.00" waitingCount="0" stopTime="0.00" timeLoss="22.81" rerouteNo="0" devices="tripinfo_p_19" vType="DEFAULT_VEHTYPE" speedFactor="1.05" vaporized=""/>
    <tripinfo id="p_47.1" depart="72.00" departLane="142575656#5_1" departPos="3.30" departSpeed="12.61" departDelay="1.50" arrival="142.00" arrivalLane="142575688#5_1" arrivalPos="28.04" arrivalSpeed="12.17" duration="70.00" routeLength="513.70" waitingTime="14.00" waitingCount="1" stopTime="0.00" timeLoss="28.23" rerouteNo="0" devices="tripinfo_p_47.1" vType="DEFAULT_VEHTYPE" speedFactor="0.91" vaporized=""/>
    <tripinfo id="p_13" depart="20.00" departLane="143308521#7_1" departPos="0.68" departSpeed="15.67" departDelay="0.50" arrival="145.00" arrivalLane="26991766#3_1" arrivalPos="50.88" arrivalSpeed="15.53" duration="125.00" routeLength="1246.36" waitingTime="8.00" waitingCount="1" stopTime="0.00" timeLoss="41.67" rerouteNo="0" devices="tripinfo_p_13" vType="DEFAULT_VEHTYPE" speedFactor="1.13" vaporized=""/>
    <tripinfo id="p_35" depart="53.00" departLane="-142575655#8_1" departPos="0.02" departSpeed="11.94" departDelay="0.50" arrival="145.00" arrivalLane="334308447#1_1" arrivalPos="127.02" arrivalSpeed="11.86" duration="92.00" routeLength="924.07" waitingTime="0.00" waitingCount="0" stopTime="0.00" timeLoss="12.07" rerouteNo="0" devices="tripinfo_p_35" vType="DEFAULT_VEHTYPE" speedFactor="0.86" vaporized=""/>
    <tripinfo id="p_38" depart="57.00" departLane="-24214694#3_1" departPos="10.11" departSpeed="8.41" departDelay="0.00" arrival="146.00" arrivalLane="142575678#0_1" arrivalPos="9.41" arrivalSpeed="7.43" duration="89.00" routeLength="864.55" waitingTime="0.00" waitingCount="0" stopTime="0.00" timeLoss="11.18" rerouteNo="0" devices="tripinfo_p_38" vType="DEFAULT_VEHTYPE" speedFactor="0.83" vaporized=""/>
    <tripinfo id="p_22.1" depart="35.00" departLane="-52081075#8_1" departPos="0.45" departSpeed="13.05" departDelay="2.00" arrival="148.00" arrivalLane="143308532#5_1" arrivalPos="293.72" arrivalSpeed="11.80" duration="113.00" routeLength="1091.69" waitingTime="9.00" waitingCount="2" stopTime="0.00" timeLoss="26.92" rerouteNo="0" devices="tripinfo_p_22.1" vType="DEFAULT_VEHTYPE" speedFactor="0.94" vaporized=""/>
    <tripinfo id="t_2.1" depart="16.00" departLane="143308505#0_1" departPos="4.09" departSpeed="5.62" departDelay="0.00" arrival="149.00" arrivalLane="-318210378#4_1" arrivalPos="87.86" arrivalSpeed="13.64" duration="133.00" routeLength="911.63" waitingTime="28.00" waitingCount="2" stopTime="0.00" timeLoss="65.28" rerouteNo="0" devices="tripinfo_t_2.1" vType="t__truck" speedFactor="1.02" vaporized=""/>
    <tripinfo id="p_78" depart="117.00" departLane="46039050#0_2" departPos="82.16" departSpeed="14.27" departDelay="0.00" arrival="153.00" arrivalLane="-142575673#0_1" arrivalPos="55.79" arrivalSpeed="13.68" duration="36.00" routeLength="425.46" waitingTime="0.00" waitingCount="0" stopTime="0.00" timeLoss="3.91" rerouteNo="0" devices="tripinfo_p_78" vType="DEFAULT_VEHTYPE" speedFactor="1.03" vaporized=""/>
    <tripinfo id="t_14" depart="112.00" departLane="71028774#1_1" departPos="11.40" departSpeed="2.36" departDelay="0.00" arrival="156.00" arrivalLane="24733698#1_1" arrivalPos="16.23" arrivalSpeed="8.08" duration="44.00" routeLength="305.95" waitingTime="4.00" waitingCount="1" stopTime="0.00" timeLoss="20.62" rerouteNo="0" devices="tripinfo_t_14" vType="t__truck" speedFactor="1.04" vaporized=""/>
    <tripinfo id="t_5.1" depart="43.00" departLane="142575684#1_1" departPos="3.30" departSpeed="1.76" departDelay="3.00" arrival="157.00" arrivalLane="142575692#0_1" arrivalPos="86.98" arrivalSpeed="12.96" duration="114.00" routeLength="810.27" waitingTime="26.00" waitingCount="2" stopTime="0.00" timeLoss="51.40" rerouteNo="0" devices="tripinfo_t_5.1" vType="t__truck" speedFactor="0.97" vaporized=""/>
    <tripinfo id="p_69" depart="104.00" departLane="318210395_1" departPos="87.96" departSpeed="3.55" departDelay="0.50" arrival="161.00" arrivalLane="-142575658#0_1" arrivalPos="104.76" arrivalSpeed="11.05" duration="57.00" routeLength="480.13" waitingTime="3.00" waitingCount="1" stopTime="0.00" timeLoss="13.20" rerouteNo="0" devices="tripinfo_p_69" vType="DEFAULT_VEHTYPE" speedFactor="0.82" vaporized=""/>
    <tripinfo id="p_69.1" depart="104.00" departLane="318210395_1" departPos="29.77" departSpeed="14.01" departDelay="0.50" arrival="163.00" arrivalLane="-142575658#0_1" arrivalPos="104.76" arrivalSpeed="13.15" duration="59.00" routeLength="538.32" waitingTime="0.00" waitingCount="0" stopTime="0.00" timeLoss="18.99" rerouteNo="0" devices="tripinfo_p_69.1" vType="DEFAULT_VEHTYPE" speedFactor="1.01" vaporized=""/>
    <tripinfo id="p_24" depart="36.00" departLane="-283317455#1_1" departPos="2.11" departSpeed="13.86" departDelay="0.00" arrival="167.00" arrivalLane="142575693#2_1" arrivalPos="49.41" arrivalSpeed="12.64" duration="131.00" routeLength="1388.90" waitingTime="2.00" waitingCount="1" stopTime="0.00" timeLoss="27.83" rerouteNo="0" devices="tripinfo_p_24" vType="DEFAULT_VEHTYPE" speedFactor="1.00" vaporized=""/>
    <tripinfo id="p_32" depart="48.00" departLane="-142575672#3_1" departPos="0.99" departSpeed="13.18" departDelay="0.00" arrival="169.00" arrivalLane="142575655#1_1" arrivalPos="43.46" arrivalSpeed="13.16" duration="121.00" routeLength="830.33" waitingTime="45.00" waitingCount="1" stopTime="0.00" timeLoss="68.14" rerouteNo="0" devices="tripinfo_p_32" vType="DEFAULT_VEHTYPE" speedFactor="1.15" vaporized=""/>
    <tripinfo id="p_32.1" depart="49.00" departLane="-142575672#3_1" departPos="2.18" departSpeed="9.22" departDelay="1.00" arrival="171.00" arrivalLane="142575655#1_1" arrivalPos="43.46" arrivalSpeed="13.91" duration="122.00" routeLength="829.14" waitingTime="44.00" waitingCount="1" stopTime="0.00" timeLoss="64.59" rerouteNo="0" devices="tripinfo_p_32.1" vType="DEFAULT_VEHTYPE" speedFactor="1.06" vaporized=""/>
    <tripinfo id="p_72" depart="108.00" departLane="-334308447#2_1" departPos="125.66" departSpeed="10.65" departDelay="0.00" arrival="171.00" arrivalLane="-142575710#3_1" arrivalPos="20.81" arrivalSpeed="10.63" duration="63.00" routeLength="603.90" waitingTime="0.00" waitingCount="0" stopTime="0.00" timeLoss="4.85" rerouteNo="0" devices="tripinfo_p_72" vType="DEFAULT_VEHTYPE" speedFactor="0.77" vaporized=""/>
    <tripinfo id="t_4" depart="32.00" departLane="334308447#1_1" departPos="78.43" departSpeed="14.06" departDelay="0.00" arrival="172.00" arrivalLane="143308549#1_2" arrivalPos="175.01" arrivalSpeed="13.45" duration="140.00" routeLength="795.08" waitingTime="51.00" waitingCount="2" stopTime="0.00" timeLoss="79.45" rerouteNo="0" devices="tripinfo_t_4" vType="t__truck" speedFactor="1.01" vaporized=""/>
    <tripinfo id="p_5" depart="8.00" departLane="314415495#9_1" departPos="23.96" departSpeed="12.26" departDelay="0.50" arrival="173.00" arrivalLane="-190083616_1" arrivalPos="92.88" arrivalSpeed="11.84" duration="165.00" routeLength="1466.14" waitingTime="25.00" waitingCount="1" stopTime="0.00" timeLoss="42.54" rerouteNo="0" devices="tripinfo_p_5" vType="DEFAULT_VEHTYPE" speedFactor="0.88" vaporized=""/>
    <tripinfo id="p_42" depart="63.00" departLane="143308505#1_1" departPos="5.59" departSpeed="1.32" departDelay="0.00" arrival="173.00" arrivalLane="-142575673#0_1" arrivalPos="55.79" arrivalSpeed="14.05" duration="110.00" routeLength="1053.80" waitingTime="5.00" waitingCount="2" stopTime="0.00" timeLoss="32.55" rerouteNo="0" devices="tripinfo_p_42" vType="DEFAULT_VEHTYPE" speedFactor="1.03" vaporized=""/>
    <tripinfo id="p_45" depart="68.00" departLane="142575656#6_1" departPos="15.21" departSpeed="12.51" departDelay="0.50" arrival="174.00" arrivalLane="-318210378#0_1" arrivalPos="24.63" arrivalSpeed="10.45" duration="106.00" routeLength="430.26" waitingTime="51.00" waitingCount="2" stopTime="0.00" timeLoss="69.06" rerouteNo="0" devices="tripinfo_p_45" vType="DEFAULT_VEHTYPE" speedFactor="0.92" vaporized=""/>
    <tripinfo id="p_80" depart="120.00" departLane="48858193#0_1" departPos="9.53" departSpeed="12.12" departDelay="0.00" arrival="174.00" arrivalLane="-318210362_1" arrivalPos="20.43" arrivalSpeed="10.92" duration="54.00" routeLength="614.43" waitingTime="0.00" waitingCount="0" stopTime="0.00" timeLoss="2.96" rerouteNo="0" devices="tripinfo_p_80" vType="DEFAULT_VEHTYPE" speedFactor="0.87" vaporized=""/>
    <tripinfo id="p_29" depart="44.00" departLane="-142575656#5_1" departPos="13.33" departSpeed="0.36" departDelay="0.50" arrival="175.00" arrivalLane="52081116#6_1" arrivalPos="0.20" arrivalSpeed="8.22" duration="131.00" routeLength="1111.91" waitingTime="18.00" waitingCount="2" stopTime="0.00" timeLoss="45.11" rerouteNo="0" devices="tripinfo_p_29" vType="DEFAULT_VEHTYPE" speedFactor="1.08" vaporized=""/>
    <tripinfo id="p_101" depart="152.00" departLane="314415495#13_1" departPos="6.53" departSpeed="8.85" departDelay="0.50" arrival="175.00" arrivalLane="-314415495#8_1" arrivalPos="34.21" arrivalSpeed="13.11" duration="23.00" routeLength="232.67" waitingTime="0.00" waitingCount="0" stopTime="0.00" timeLoss="4.62" rerouteNo="0" devices="tripinfo_p_101" vType="DEFAULT_VEHTYPE" speedFactor="0.95" vaporized=""/>
    <tripinfo id="p_12" depart="18.00" departLane="-38915290#0_1" departPos="16.14" departSpeed="13.76" departDelay="0.00" arrival="176.00" arrivalLane="-142575709_1" arrivalPos="81.51" arrivalSpeed="13.48" duration="158.00" routeLength="1318.88" waitingTime="41.00" waitingCount="2" stopTime="0.00" timeLoss="59.97" rerouteNo="0" devices="tripinfo_p_12" vType="DEFAULT_VEHTYPE" speedFactor="0.99" vaporized=""/>
    <tripinfo id="p_50" depart="75.00" departLane="142575688#4_1" departPos="21.33" departSpeed="9.05" departDelay="0.00" arrival="176.00" arrivalLane="-142575710#2_1" arrivalPos="8.30" arrivalSpeed="7.35" duration="101.00" routeLength="647.47" waitingTime="23.00" waitingCount="3" stopTime="0.00" timeLoss="54.50" rerouteNo="0" devices="tripinfo_p_50" vType="DEFAULT_VEHTYPE" speedFactor="1.07" vaporized=""/>
    <tripinfo id="p_52" depart="78.00" departLane="142575684#4_1" departPos="63.06" departSpeed="8.56" departDelay="0.00" arrival="176.00" arrivalLane="143308527#3_1" arrivalPos="0.83" arrivalSpeed="11.27" duration="98.00" routeLength="1005.40" waitingTime="0.00" waitingCount="0" stopTime="0.00" timeLoss="11.71" rerouteNo="0" devices="tripinfo_p_52" vType="DEFAULT_VEHTYPE" speedFactor="0.87" vaporized=""/>
    <tripinfo id="p_45.1" depart="68.00" departLane="142575656#6_1" departPos="0.80" departSpeed="10.64" departDelay="0.50" arrival="178.00" arrivalLane="-318210378#0_1" arrivalPos="24.63" arrivalSpeed="9.77" duration="110.00" routeLength="444.67" waitingTime="49.00" waitingCount="2" stopTime="0.00" timeLoss="77.06" rerouteNo="0" devices="tripinfo_p_45.1" vType="DEFAULT_VEHTYPE" speedFactor="1.04" vaporized=""/>
    <tripinfo id="p_52.1" depart="78.00" departLane="142575684#4_1" departPos="2.60" departSpeed="16.85" departDelay="0.00" arrival="178.00" arrivalLane="143308527#3_1" arrivalPos="0.83" arrivalSpeed="15.75" duration="100.00" routeLength="1065.86" waitingTime="0.00" waitingCount="0" stopTime="0.00" timeLoss="33.30" rerouteNo="0" devices="tripinfo_p_52.1" vType="DEFAULT_VEHTYPE" speedFactor="1.21" vaporized=""/>
    <tripinfo id="p_64" depart="96.00" departLane="48858193#0_1" departPos="56.97" departSpeed="15.05" departDelay="0.00" arrival="178.00" arrivalLane="-142575656#14_1" arrivalPos="34.87" arrivalSpeed="14.50" duration="82.00" routeLength="1051.76" waitingTime="0.00" waitingCount="0" stopTime="0.00" timeLoss="9.32" rerouteNo="0" devices="tripinfo_p_64" vType="DEFAULT_VEHTYPE" speedFactor="1.08" vaporized=""/>
    <tripinfo id="p_101.1" depart="153.00" departLane="314415495#13_1" departPos="7.31" departSpeed="3.91" departDelay="1.50" arrival="178.00" arrivalLane="-314415495#8_1" arrivalPos="34.21" arrivalSpeed="13.98" duration="25.00" routeLength="231.89" waitingTime="0.00" waitingCount="0" stopTime="0.00" timeLoss="6.89" rerouteNo="0" devices="tripinfo_p_101.1" vType="DEFAULT_VEHTYPE" speedFactor="1.01" vaporized=""/>
    <tripinfo id="p_39" depart="59.00" departLane="318210378#3_1" departPos="3.77" departSpeed="15.56" departDelay="0.50" arrival="183.00" arrivalLane="143308549#4_2" arrivalPos="4.32" arrivalSpeed="5.85" duration="124.00" routeLength="601.01" waitingTime="57.00" waitingCount="3" stopTime="0.00" timeLoss="83.51" rerouteNo="0" devices="tripinfo_p_39" vType="DEFAULT_VEHTYPE" speedFactor="1.12" vaporized=""/>
    <tripinfo id="p_39.1" depart="62.00" departLane="318210378#3_1" departPos="32.67" departSpeed="9.96" departDelay="3.50" arrival="186.00" arrivalLane="143308549#4_2" arrivalPos="4.32" arrivalSpeed="9.64" duration="124.00" routeLength="572.11" waitingTime="50.00" waitingCount="4" stopTime="0.00" timeLoss="80.47" rerouteNo="0" devices="tripinfo_p_39.1" vType="DEFAULT_VEHTYPE" speedFactor="0.99" vaporized=""/>
    <tripinfo id="p_74" depart="111.00" departLane="-314415495#12_1" departPos="9.15" departSpeed="6.15" departDelay="0.00" arrival="187.00" arrivalLane="670062907#1_1" arrivalPos="18.08" arrivalSpeed="11.97" duration="76.00" routeLength="426.80" waitingTime="26.00" waitingCount="1" stopTime="0.00" timeLoss="41.11" rerouteNo="0" devices="tripinfo_p_74" vType="DEFAULT_VEHTYPE" speedFactor="0.93" vaporized=""/>
    <tripinfo id="p_64.1" depart="97.00" departLane="48858193#0_1" departPos="26.73" departSpeed="13.88" departDelay="1.00" arrival="189.00" arrivalLane="-142575656#14_1" arrivalPos="34.87" arrivalSpeed="12.43" duration="92.00" routeLength="1082.00" waitingTime="0.00" waitingCount="0" stopTime="0.00" timeLoss="11.99" rerouteNo="0" devices="tripinfo_p_64.1" vType="DEFAULT_VEHTYPE" speedFactor="1.00" vaporized=""/>
    <tripinfo id="p_29.1" depart="44.00" departLane="-142575656#5_1" departPos="5.02" departSpeed="0.81" departDelay="0.50" arrival="191.00" arrivalLane="52081116#6_1" arrivalPos="0.20" arrivalSpeed="5.94" duration="147.00" routeLength="1120.22" waitingTime="5.00" waitingCount="2" stopTime="0.00" timeLoss="34.23" rerouteNo="0" devices="tripinfo_p_29.1" vType="DEFAULT_VEHTYPE" speedFactor="0.82" vaporized=""/>
    <tripinfo id="p_49" depart="74.00" departLane="-142575674#5_1" departPos="4.90" departSpeed="15.30" departDelay="0.50" arrival="191.00" arrivalLane="142575657#2_1" arrivalPos="9.38" arrivalSpeed="14.10" duration="117.00" routeLength="922.35" waitingTime="24.00" waitingCount="3" stopTime="0.00" timeLoss="54.59" rerouteNo="0" devices="tripinfo_p_49" vType="DEFAULT_VEHTYPE" speedFactor="1.10" vaporized=""/>
    <tripinfo id="t_13" depart="104.00" departLane="-142575658#1_1" departPos="101.05" departSpeed="10.20" departDelay="0.00" arrival="191.00" arrivalLane="-142575688#1_1" arrivalPos="38.44" arrivalSpeed="14.22" duration="87.00" routeLength="757.73" waitingTime="10.00" waitingCount="1" stopTime="0.00" timeLoss="30.75" rerouteNo="0" devices="tripinfo_t_13" vType="t__truck" speedFactor="1.04" vaporized=""/>
    <tripinfo id="p_40" depart="60.00" departLane="-142575656#6_1" departPos="47.04" departSpeed="2.88" departDelay="0.00" arrival="193.00" arrivalLane="670062902#3_1" arrivalPos="52.47" arrivalSpeed="11.33" duration="133.00" routeLength="801.03" waitingTime="34.00" waitingCount="3" stopTime="0.00" timeLoss="62.11" rerouteNo="0" devices="tripinfo_p_40" vType="DEFAULT_VEHTYPE" speedFactor="0.85" vaporized=""/>
    <tripinfo id="p_51" depart="77.00" departLane="-334308447#2_1" departPos="83.26" departSpeed="15.79" departDelay="0.50" arrival="193.00" arrivalLane="142575693#4_1" arrivalPos="1.84" arrivalSpeed="11.26" duration="116.00" routeLength="1069.17" waitingTime="24.00" waitingCount="1" stopTime="0.00" timeLoss="46.96" rerouteNo="0" devices="tripinfo_p_51" vType="DEFAULT_VEHTYPE" speedFactor="1.14" vaporized=""/>
    <tripinfo id="p_67" depart="101.00" departLane="-31050360#2_1" departPos="4.37" departSpeed="13.31" departDelay="0.50" arrival="193.00" arrivalLane="-142575656#12_1" arrivalPos="11.86" arrivalSpeed="7.32" duration="92.00" routeLength="505.88" waitingTime="29.00" waitingCount="3" stopTime="0.00" timeLoss="51.05" rerouteNo="0" devices="tripinfo_p_67" vType="DEFAULT_VEHTYPE" speedFactor="0.96" vaporized=""/>
    <tripinfo id="p_61" depart="92.00" departLane="-38160000_0" departPos="0.60" departSpeed="10.64" departDelay="0.50" arrival="194.00" arrivalLane="143308546#7_1" arrivalPos="57.52" arrivalSpeed="8.99" duration="102.00" routeLength="929.55" waitingTime="10.00" waitingCount="2" stopTime="0.00" timeLoss="37.22" rerouteNo="0" devices="tripinfo_p_61" vType="DEFAULT_VEHTYPE" speedFactor="1.09" vaporized=""/>
    <tripinfo id="t_11" depart="88.00" departLane="-38159999#1_1" departPos="8.88" departSpeed="12.78" departDelay="0.00" arrival="194.00" arrivalLane="31050360#0_1" arrivalPos="49.42" arrivalSpeed="11.80" duration="106.00" routeLength="805.46" waitingTime="23.00" waitingCount="1" stopTime="0.00" timeLoss="39.89" rerouteNo="0" devices="tripinfo_t_11" vType="t__truck" speedFactor="0.92" vaporized=""/>
    <tripinfo id="p_67.1" depart="103.00" departLane="-31050360#2_1" departPos="2.24" departSpeed="13.62" departDelay="2.50" arrival="196.00" arrivalLane="-142575656#12_1" arrivalPos="11.86" arrivalSpeed="7.08" duration="93.00" routeLength="508.01" waitingTime="20.00" waitingCount="3" stopTime="0.00" timeLoss="52.48" rerouteNo="0" devices="tripinfo_p_67.1" vType="DEFAULT_VEHTYPE" speedFactor="0.98" vaporized=""/>
    <tripinfo id="p_48" depart="72.00" departLane="-318210369#1_2" departPos="9.85" departSpeed="8.51" departDelay="0.00" arrival="198.00" arrivalLane="-71028777#0_1" arrivalPos="44.35" arrivalSpeed="14.35" duration="126.00" routeLength="1089.37" waitingTime="11.00" waitingCount="2" stopTime="0.00" timeLoss="44.82" rerouteNo="0" devices="tripinfo_p_48" vType="DEFAULT_VEHTYPE" speedFactor="1.05" vaporized=""/>
    <tripinfo id="p_65" depart="98.00" departLane="-142575655#1_1" departPos="25.98" departSpeed="10.32" departDelay="0.50" arrival="201.00" arrivalLane="143308532#5_1" arrivalPos="293.72" arrivalSpeed="13.75" duration="103.00" routeLength="1230.87" waitingTime="0.00" waitingCount="0" stopTime="0.00" timeLoss="13.50" rerouteNo="0" devices="tripinfo_p_65" vType="DEFAULT_VEHTYPE" speedFactor="1.02" vaporized=""/>
    <tripinfo id="p_57" depart="86.00" departLane="180789857#11_0" departPos="6.76" departSpeed="3.01" departDelay="0.50" arrival="202.00" arrivalLane="52081116#3_1" arrivalPos="0.20" arrivalSpeed="8.24" duration="116.00" routeLength="1049.43" waitingTime="0.00" waitingCount="0" stopTime="0.00" timeLoss="17.24" rerouteNo="0" devices="tripinfo_p_57" vType="DEFAULT_VEHTYPE" speedFactor="1.08" vaporized=""/>