<?xml version="1.0" encoding="UTF-8"?>

<!-- generated on 2026-03-30 08:49:52 by Eclipse SUMO GUI Version 1.18.0
<configuration xmlns:xsi="http://www.w3.org/2001/XMLSchema-instance" xsi:noNamespaceSchemaLocation="http://sumo.dlr.de/xsd/sumoConfiguration.xsd">

    <input>
        <net-file value="sumo/scenarios/../networks/city.net.xml"/>
        <route-files value="/home/vivek/research/NIT hackathon/final_year_project/sumo/routes/city_passenger.rou.xml,/home/vivek/research/NIT hackathon/final_year_project/sumo/routes/city_freight.rou.xml,/home/vivek/research/NIT hackathon/final_year_project/sumo/scenarios/demo_controlled_group.rou.xml,/home/vivek/research/NIT hackathon/final_year_project/sumo/scenarios/demo_emergency_group.rou.xml"/>
        <additional-files value="/home/vivek/research/NIT hackathon/final_year_project/sumo/scenarios/demo_rsu_pois.add.xml"/>
        <junction-taz value="true"/>
    </input>

    <output>
        <summary-output value="/home/vivek/research/NIT hackathon/final_year_project/evaluation/hackathon_kpi/baseline_gui_once_summary.xml"/>
        <tripinfo-output value="/home/vivek/research/NIT hackathon/final_year_project/evaluation/hackathon_kpi/baseline_gui_once_tripinfo.xml"/>
        <statistic-output value="/home/vivek/research/NIT hackathon/final_year_project/evaluation/hackathon_kpi/baseline_gui_once_statistics.xml"/>
    </output>

    <time>
        <begin value="0"/>
        <end value="3600"/>
        <step-length value="1.0"/>
    </time>

    <processing>
        <scale value="1.8"/>
    </processing>

    <traci_server>
        <remote-port value="39965"/>
    </traci_server>

    <random_number>
        <seed value="42"/>
    </random_number>

    <gui_only>
        <gui-settings-file value="sumo/scenarios/city_3d.settings.xml"/>
    </gui_only>

</configuration>
-->

<tripinfos xmlns:xsi="http://www.w3.org/2001/XMLSchema-instance" xsi:noNamespaceSchemaLocation="http://sumo.dlr.de/xsd/tripinfo_file.xsd">
    <tripinfo id="p_3" depart="5.00" departLane="142575690#7_1" departPos="33.36" departSpeed="12.01" departDelay="0.50" arrival="68.00" arrivalLane="-71028777#2_1" arrivalPos="95.58" arrivalSpeed="15.57" duration="63.00" routeLength="716.11" waitingTime="1.00" waitingCount="1" stopTime="0.00" timeLoss="14.63" rerouteNo="0" devices="tripinfo_p_3" vType="DEFAULT_VEHTYPE" speedFactor="1.13" vaporized=""/>
    <tripinfo id="p_21" depart="32.00" departLane="-142575704#1_1" departPos="21.28" departSpeed="11.44" departDelay="0.50" arrival="72.00" arrivalLane="318210377#0_1" arrivalPos="0.33" arrivalSpeed="11.17" duration="40.00" routeLength="305.65" waitingTime="3.00" waitingCount="1" stopTime="0.00" timeLoss="11.75" rerouteNo="0" devices="tripinfo_p_21" vType="DEFAULT_VEHTYPE" speedFactor="0.82" vaporized=""/>
    <tripinfo id="p_21.1" depart="32.00" departLane="-142575704#1_1" departPos="13.52" departSpeed="7.07" departDelay="0.50" arrival="74.00" arrivalLane="318210377#0_1" arrivalPos="0.33" arrivalSpeed="13.30" duration="42.00" routeLength="313.41" waitingTime="3.00" waitingCount="1" stopTime="0.00" timeLoss="18.43" rerouteNo="0" devices="tripinfo_p_21.1" vType="DEFAULT_VEHTYPE" speedFactor="1.01" vaporized=""/>
    <tripinfo id="p_31" depart="47.00" departLane="-143308505#2_1" departPos="0.25" departSpeed="14.35" departDelay="0.50" arrival="89.00" arrivalLane="172014854#1_1" arrivalPos="37.02" arrivalSpeed="13.66" duration="42.00" routeLength="529.92" waitingTime="0.00" waitingCount="0" stopTime="0.00" timeLoss="3.69" rerouteNo="0" devices="tripinfo_p_31" vType="DEFAULT_VEHTYPE" speedFactor="1.03" vaporized=""/>
    <tripinfo id="p_9.1" depart="14.00" departLane="48858193#0_1" departPos="47.89" departSpeed="13.76" departDelay="0.50" arrival="90.00" arrivalLane="314415495#8_1" arrivalPos="34.21" arrivalSpeed="13.33" duration="76.00" routeLength="877.91" waitingTime="0.00" waitingCount="0" stopTime="0.00" timeLoss="9.54" rerouteNo="0" devices="tripinfo_p_9.1" vType="DEFAULT_VEHTYPE" speedFactor="0.99" vaporized=""/>
    <tripinfo id="t_6" depart="48.00" departLane="-143308505#2_1" departPos="3.75" departSpeed="7.90" departDelay="0.00" arrival="95.00" arrivalLane="142575704#9_1" arrivalPos="52.82" arrivalSpeed="13.59" duration="47.00" routeLength="442.99" waitingTime="0.00" waitingCount="0" stopTime="0.00" timeLoss="12.01" rerouteNo="0" devices="tripinfo_t_6" vType="t__truck" speedFactor="1.00" vaporized=""/>
    <tripinfo id="p_9" depart="14.00" departLane="48858193#0_1" departPos="9.66" departSpeed="13.00" departDelay="0.50" arrival="96.00" arrivalLane="314415495#8_1" arrivalPos="34.21" arrivalSpeed="12.62" duration="82.00" routeLength="916.14" waitingTime="0.00" waitingCount="0" stopTime="0.00" timeLoss="9.30" rerouteNo="0" devices="tripinfo_p_9" vType="DEFAULT_VEHTYPE" speedFactor="0.94" vaporized=""/>
    <tripinfo id="t_6.1" depart="51.00" departLane="-143308505#2_1" departPos="6.08" departSpeed="2.87" departDelay="3.00" arrival="103.00" arrivalLane="142575704#9_1" arrivalPos="52.82" arrivalSpeed="12.26" duration="52.00" routeLength="440.66" waitingTime="0.00" waitingCount="0" stopTime="0.00" timeLoss="13.49" rerouteNo="0" devices="tripinfo_t_6.1" vType="t__truck" speedFactor="0.91" vaporized=""/>
    <tripinfo id="p_3.1" depart="5.00" departLane="142575690#7_1" departPos="8.72" departSpeed="12.26" departDelay="0.50" arrival="108.00" arrivalLane="-71028777#2_1" arrivalPos="95.58" arrivalSpeed="11.72" duration="103.00" routeLength="740.75" waitingTime="25.00" waitingCount="1" stopTime="0.00" timeLoss="40.37" rerouteNo="0" devices="tripinfo_p_3.1" vType="DEFAULT_VEHTYPE" speedFactor="0.88" vaporized=""/>
    <tripinfo id="p_27" depart="41.00" departLane="314415495#0_1" departPos="30.00" departSpeed="12.73" departDelay="0.50" arrival="110.00" arrivalLane="142575667#0_2" arrivalPos="94.91" arrivalSpeed="11.44" duration="69.00" routeLength="741.82" waitingTime="0.00" waitingCount="0" stopTime="0.00" timeLoss="7.92" rerouteNo="0" devices="tripinfo_p_27" vType="DEFAULT_VEHTYPE" speedFactor="0.92" vaporized=""/>
    <tripinfo id="t_5" depart="41.00" departLane="142575684#1_1" departPos="11.09" departSpeed="0.19" departDelay="1.00" arrival="116.00" arrivalLane="142575692#0_1" arrivalPos="86.98" arrivalSpeed="13.42" duration="75.00" routeLength="802.48" waitingTime="0.00" waitingCount="0" stopTime="0.00" timeLoss="15.11" rerouteNo="0" devices="tripinfo_t_5" vType="t__truck" speedFactor="1.01" vaporized=""/>
    <tripinfo id="p_27.1" depart="41.00" departLane="314415495#0_1" departPos="2.99" departSpeed="11.94" departDelay="0.50" arrival="117.00" arrivalLane="142575667#0_2" arrivalPos="94.91" arrivalSpeed="11.54" duration="76.00" routeLength="768.83" waitingTime="0.00" waitingCount="0" stopTime="0.00" timeLoss="8.27" rerouteNo="0" devices="tripinfo_p_27.1" vType="DEFAULT_VEHTYPE" speedFactor="0.86" vaporized=""/>
    <tripinfo id="p_4" depart="6.00" departLane="142575655#9_1" departPos="9.18" departSpeed="7.95" departDelay="0.00" arrival="124.00" arrivalLane="26991766#0_1" arrivalPos="48.84" arrivalSpeed="11.61" duration="118.00" routeLength="1097.35" waitingTime="0.00" waitingCount="0" stopTime="0.00" timeLoss="19.48" rerouteNo="0" devices="tripinfo_p_4" vType="DEFAULT_VEHTYPE" speedFactor="0.84" vaporized=""/>
    <tripinfo id="t_8" depart="64.00" departLane="-142575704#11_1" departPos="38.15" departSpeed="13.76" departDelay="0.00" arrival="124.00" arrivalLane="142575688#2_1" arrivalPos="0.80" arrivalSpeed="13.41" duration="60.00" routeLength="658.67" waitingTime="0.00" waitingCount="0" stopTime="0.00" timeLoss="9.70" rerouteNo="0" devices="tripinfo_t_8" vType="t__truck" speedFactor="0.99" vaporized=""/>
    <tripinfo id="p_4.1" depart="7.00" departLane="142575655#9_1" departPos="2.06" departSpeed="7.70" departDelay="1.00" arrival="126.00" arrivalLane="26991766#0_1" arrivalPos="48.84" arrivalSpeed="13.68" duration="119.00" routeLength="1104.47" waitingTime="0.00" waitingCount="0" stopTime="0.00" timeLoss="34.29" rerouteNo="0" devices="tripinfo_p_4.1" vType="DEFAULT_VEHTYPE" speedFactor="1.00" vaporized=""/>
    <tripinfo id="p_54" depart="81.00" departLane="-142575710#4_1" departPos="5.29" departSpeed="5.49" departDelay="0.00" arrival="126.00" arrivalLane="46424277_1" arrivalPos="3.96" arrivalSpeed="4.96" duration="45.00" routeLength="400.28" waitingTime="0.00" waitingCount="0" stopTime="0.00" timeLoss="8.65" rerouteNo="0" devices="tripinfo_p_54" vType="DEFAULT_VEHTYPE" speedFactor="0.89" vaporized=""/>
    <tripinfo id="p_5" depart="8.00" departLane="314415495#9_1" departPos="46.55" departSpeed="13.81" departDelay="0.50" arrival="127.00" arrivalLane="-190083616_1" arrivalPos="92.88" arrivalSpeed="13.48" duration="119.00" routeLength="1443.55" waitingTime="0.00" waitingCount="0" stopTime="0.00" timeLoss="11.47" rerouteNo="0" devices="tripinfo_p_5" vType="DEFAULT_VEHTYPE" speedFactor="0.99" vaporized=""/>
    <tripinfo id="t_8.1" depart="64.00" departLane="-142575704#11_1" departPos="11.10" departSpeed="13.81" departDelay="0.00" arrival="127.00" arrivalLane="142575688#2_1" arrivalPos="0.80" arrivalSpeed="13.56" duration="63.00" routeLength="685.72" waitingTime="0.00" waitingCount="0" stopTime="0.00" timeLoss="10.62" rerouteNo="0" devices="tripinfo_t_8.1" vType="t__truck" speedFactor="0.99" vaporized=""/>
    <tripinfo id="p_35" depart="53.00" departLane="-142575655#8_1" departPos="0.22" departSpeed="15.30" departDelay="0.50" arrival="128.00" arrivalLane="334308447#1_1" arrivalPos="127.02" arrivalSpeed="14.07" duration="75.00" routeLength="923.87" waitingTime="0.00" waitingCount="0" stopTime="0.00" timeLoss="12.43" rerouteNo="0" devices="tripinfo_p_35" vType="DEFAULT_VEHTYPE" speedFactor="1.10" vaporized=""/>
    <tripinfo id="p_38" depart="57.00" departLane="-24214694#3_1" departPos="12.80" departSpeed="7.07" departDelay="0.00" arrival="131.00" arrivalLane="142575678#0_1" arrivalPos="9.41" arrivalSpeed="9.32" duration="74.00" routeLength="861.86" waitingTime="0.00" waitingCount="0" stopTime="0.00" timeLoss="8.09" rerouteNo="0" devices="tripinfo_p_38" vType="DEFAULT_VEHTYPE" speedFactor="0.97" vaporized=""/>
    <tripinfo id="p_35.1" depart="54.00" departLane="-142575655#8_1" departPos="0.32" departSpeed="11.69" departDelay="1.50" arrival="132.00" arrivalLane="334308447#1_1" arrivalPos="127.02" arrivalSpeed="14.77" duration="78.00" routeLength="923.77" waitingTime="0.00" waitingCount="0" stopTime="0.00" timeLoss="13.70" rerouteNo="0" devices="tripinfo_p_35.1" vType="DEFAULT_VEHTYPE" speedFactor="1.07" vaporized=""/>
    <tripinfo id="p_36" depart="54.00" departLane="143308546#15_2" departPos="24.96" departSpeed="15.79" departDelay="0.00" arrival="133.00" arrivalLane="-190083616_1" arrivalPos="92.88" arrivalSpeed="14.90" duration="79.00" routeLength="612.56" waitingTime="27.00" waitingCount="2" stopTime="0.00" timeLoss="39.13" rerouteNo="0" devices="tripinfo_p_36" vType="DEFAULT_VEHTYPE" speedFactor="1.14" vaporized=""/>
    <tripinfo id="t_3" depart="24.00" departLane="135777010#1_1" departPos="89.97" departSpeed="13.89" departDelay="0.00" arrival="135.00" arrivalLane="-142575688#3_1" arrivalPos="20.34" arrivalSpeed="9.24" duration="111.00" routeLength="1197.53" waitingTime="0.00" waitingCount="0" stopTime="0.00" timeLoss="20.54" rerouteNo="0" devices="tripinfo_t_3" vType="t__truck" speedFactor="1.00" vaporized=""/>
    <tripinfo id="p_22.1" depart="33.00" departLane="-52081075#8_1" departPos="49.94" departSpeed="9.05" departDelay="0.00" arrival="136.00" arrivalLane="143308532#5_1" arrivalPos="293.72" arrivalSpeed="15.80" duration="103.00" routeLength="1042.20" waitingTime="18.00" waitingCount="1" stopTime="0.00" timeLoss="35.32" rerouteNo="0" devices="tripinfo_p_22.1" vType="DEFAULT_VEHTYPE" speedFactor="1.15" vaporized=""/>
    <tripinfo id="p_22" depart="33.00" departLane="-52081075#8_1" departPos="5.76" departSpeed="16.01" departDelay="0.00" arrival="139.00" arrivalLane="143308532#5_1" arrivalPos="293.72" arrivalSpeed="14.86" duration="106.00" routeLength="1086.38" waitingTime="18.00" waitingCount="1" stopTime="0.00" timeLoss="36.07" rerouteNo="0" devices="tripinfo_p_22" vType="DEFAULT_VEHTYPE" speedFactor="1.15" vaporized=""/>
    <tripinfo id="p_28" depart="42.00" departLane="-143308527#3_1" departPos="0.50" departSpeed="13.25" departDelay="0.00" arrival="140.00" arrivalLane="52081075#3_1" arrivalPos="36.64" arrivalSpeed="12.85" duration="98.00" routeLength="544.09" waitingTime="40.00" waitingCount="2" stopTime="0.00" timeLoss="54.81" rerouteNo="0" devices="tripinfo_p_28" vType="DEFAULT_VEHTYPE" speedFactor="0.95" vaporized=""/>
    <tripinfo id="p_47" depart="71.00" departLane="142575656#5_1" departPos="0.21" departSpeed="11.21" departDelay="0.50" arrival="141.00" arrivalLane="142575688#5_1" arrivalPos="28.04" arrivalSpeed="14.47" duration="70.00" routeLength="516.79" waitingTime="17.00" waitingCount="1" stopTime="0.00" timeLoss="34.57" rerouteNo="0" devices="tripinfo_p_47" vType="DEFAULT_VEHTYPE" speedFactor="1.08" vaporized=""/>
    <tripinfo id="p_13" depart="20.00" departLane="143308521#7_1" departPos="32.76" departSpeed="12.14" departDelay="0.50" arrival="142.00" arrivalLane="26991766#3_1" arrivalPos="50.88" arrivalSpeed="11.41" duration="122.00" routeLength="1214.28" waitingTime="0.00" waitingCount="0" stopTime="0.00" timeLoss="17.16" rerouteNo="0" devices="tripinfo_p_13" vType="DEFAULT_VEHTYPE" speedFactor="0.87" vaporized=""/>
    <tripinfo id="t_5.1" depart="43.00" departLane="142575684#1_1" departPos="1.92" departSpeed="3.26" departDelay="3.00" arrival="142.00" arrivalLane="142575692#0_1" arrivalPos="86.98" arrivalSpeed="14.65" duration="99.00" routeLength="811.65" waitingTime="12.00" waitingCount="1" stopTime="0.00" timeLoss="42.67" rerouteNo="0" devices="tripinfo_t_5.1" vType="t__truck" speedFactor="1.08" vaporized=""/>
    <tripinfo id="p_13.1" depart="20.00" departLane="143308521#7_1" departPos="6.06" departSpeed="14.25" departDelay="0.50" arrival="143.00" arrivalLane="26991766#3_1" arrivalPos="50.88" arrivalSpeed="13.57" duration="123.00" routeLength="1240.98" waitingTime="0.00" waitingCount="0" stopTime="0.00" timeLoss="33.93" rerouteNo="0" devices="tripinfo_p_13.1" vType="DEFAULT_VEHTYPE" speedFactor="1.05" vaporized=""/>
    <tripinfo id="p_19.1" depart="29.00" departLane="38159999#0_1" departPos="32.45" departSpeed="14.95" departDelay="0.50" arrival="143.00" arrivalLane="24733698#0_1" arrivalPos="86.18" arrivalSpeed="14.85" duration="114.00" routeLength="1218.71" waitingTime="5.00" waitingCount="1" stopTime="0.00" timeLoss="28.92" rerouteNo="0" devices="tripinfo_p_19.1" vType="DEFAULT_VEHTYPE" speedFactor="1.08" vaporized=""/>
    <tripinfo id="p_28.1" depart="43.00" departLane="-143308527#3_1" departPos="0.37" departSpeed="10.39" departDelay="1.00" arrival="143.00" arrivalLane="52081075#3_1" arrivalPos="36.64" arrivalSpeed="12.05" duration="100.00" routeLength="544.22" waitingTime="35.00" waitingCount="2" stopTime="0.00" timeLoss="55.72" rerouteNo="0" devices="tripinfo_p_28.1" vType="DEFAULT_VEHTYPE" speedFactor="0.94" vaporized=""/>
    <tripinfo id="p_39" depart="59.00" departLane="318210378#3_1" departPos="55.75" departSpeed="2.25" departDelay="0.50" arrival="144.00" arrivalLane="143308549#4_1" arrivalPos="4.32" arrivalSpeed="8.77" duration="85.00" routeLength="549.03" waitingTime="19.00" waitingCount="2" stopTime="0.00" timeLoss="37.52" rerouteNo="0" devices="tripinfo_p_39" vType="DEFAULT_VEHTYPE" speedFactor="0.88" vaporized=""/>
    <tripinfo id="p_0" depart="0.00" departLane="-142575656#10_1" departPos="5.97" departSpeed="13.17" departDelay="0.00" arrival="146.00" arrivalLane="670062912#0_2" arrivalPos="4.35" arrivalSpeed="8.49" duration="146.00" routeLength="730.45" waitingTime="69.00" waitingCount="2" stopTime="0.00" timeLoss="87.12" rerouteNo="0" devices="tripinfo_p_0" vType="DEFAULT_VEHTYPE" speedFactor="0.95" vaporized=""/>
    <tripinfo id="p_38.1" depart="57.00" departLane="-24214694#3_1" departPos="4.40" departSpeed="3.47" departDelay="0.00" arrival="146.00" arrivalLane="142575678#0_1" arrivalPos="9.41" arrivalSpeed="8.93" duration="89.00" routeLength="870.26" waitingTime="7.00" waitingCount="1" stopTime="0.00" timeLoss="19.96" rerouteNo="0" devices="tripinfo_p_38.1" vType="DEFAULT_VEHTYPE" speedFactor="0.94" vaporized=""/>
    <tripinfo id="p_78" depart="117.00" departLane="46039050#0_2" departPos="157.74" departSpeed="14.22" departDelay="0.00" arrival="147.00" arrivalLane="-142575673#0_1" arrivalPos="55.79" arrivalSpeed="13.79" duration="30.00" routeLength="349.88" waitingTime="0.00" waitingCount="0" stopTime="0.00" timeLoss="3.25" rerouteNo="0" devices="tripinfo_p_78" vType="DEFAULT_VEHTYPE" speedFactor="1.02" vaporized=""/>
    <tripinfo id="p_47.1" depart="73.00" departLane="142575656#5_1" departPos="4.02" departSpeed="9.95" departDelay="2.50" arrival="148.00" arrivalLane="142575688#5_1" arrivalPos="28.04" arrivalSpeed="13.08" duration="75.00" routeLength="512.98" waitingTime="17.00" waitingCount="1" stopTime="0.00" timeLoss="36.52" rerouteNo="0" devices="tripinfo_p_47.1" vType="DEFAULT_VEHTYPE" speedFactor="1.00" vaporized=""/>
    <tripinfo id="p_0.1" depart="2.00" departLane="-142575656#10_1" departPos="12.44" departSpeed="11.79" departDelay="2.00" arrival="149.00" arrivalLane="670062912#0_2" arrivalPos="4.35" arrivalSpeed="9.03" duration="147.00" routeLength="723.98" waitingTime="64.00" waitingCount="2" stopTime="0.00" timeLoss="95.00" rerouteNo="0" devices="tripinfo_p_0.1" vType="DEFAULT_VEHTYPE" speedFactor="1.07" vaporized=""/>
    <tripinfo id="t_2" depart="16.00" departLane="143308505#0_1" departPos="1.62" departSpeed="12.76" departDelay="0.00" arrival="149.00" arrivalLane="-318210378#4_1" arrivalPos="87.86" arrivalSpeed="13.88" duration="133.00" routeLength="914.10" waitingTime="32.00" waitingCount="1" stopTime="0.00" timeLoss="65.82" rerouteNo="0" devices="tripinfo_t_2" vType="t__truck" speedFactor="1.04" vaporized=""/>
    <tripinfo id="p_19" depart="29.00" departLane="38159999#0_1" departPos="9.73" departSpeed="13.09" departDelay="0.50" arrival="150.00" arrivalLane="24733698#0_1" arrivalPos="86.18" arrivalSpeed="12.73" duration="121.00" routeLength="1241.43" waitingTime="1.00" waitingCount="1" stopTime="0.00" timeLoss="22.99" rerouteNo="0" devices="tripinfo_p_19" vType="DEFAULT_VEHTYPE" speedFactor="0.94" vaporized=""/>
    <tripinfo id="t_2.1" depart="18.00" departLane="143308505#0_1" departPos="6.09" departSpeed="8.71" departDelay="2.00" arrival="153.00" arrivalLane="-318210378#4_1" arrivalPos="87.86" arrivalSpeed="13.94" duration="135.00" routeLength="909.63" waitingTime="31.00" waitingCount="1" stopTime="0.00" timeLoss="68.00" rerouteNo="0" devices="tripinfo_t_2.1" vType="t__truck" speedFactor="1.05" vaporized=""/>
    <tripinfo id="p_50" depart="75.00" departLane="142575688#4_1" departPos="0.49" departSpeed="13.62" departDelay="0.00" arrival="154.00" arrivalLane="-142575710#2_1" arrivalPos="8.30" arrivalSpeed="5.49" duration="79.00" routeLength="668.31" waitingTime="3.00" waitingCount="1" stopTime="0.00" timeLoss="26.32" rerouteNo="0" devices="tripinfo_p_50" vType="DEFAULT_VEHTYPE" speedFactor="0.98" vaporized=""/>
    <tripinfo id="t_14" depart="112.00" departLane="71028774#1_1" departPos="11.99" departSpeed="1.77" departDelay="0.00" arrival="156.00" arrivalLane="24733698#1_1" arrivalPos="16.23" arrivalSpeed="7.81" duration="44.00" routeLength="305.36" waitingTime="3.00" waitingCount="1" stopTime="0.00" timeLoss="21.28" rerouteNo="0" devices="tripinfo_t_14" vType="t__truck" speedFactor="1.04" vaporized=""/>
    <tripinfo id="p_72" depart="108.00" departLane="-334308447#2_1" departPos="156.33" departSpeed="13.98" departDelay="0.00" arrival="157.00" arrivalLane="-142575710#3_1" arrivalPos="20.81" arrivalSpeed="13.19" duration="49.00" routeLength="573.23" waitingTime="0.00" waitingCount="0" stopTime="0.00" timeLoss="6.66" rerouteNo="0" devices="tripinfo_p_72" vType="DEFAULT_VEHTYPE" speedFactor="1.01" vaporized=""/>
    <tripinfo id="p_80" depart="120.00" departLane="48858193#0_1" departPos="60.61" departSpeed="14.77" departDelay="0.00" arrival="160.00" arrivalLane="-318210362_1" arrivalPos="20.43" arrivalSpeed="14.27" duration="40.00" routeLength="563.35" waitingTime="0.00" waitingCount="0" stopTime="0.00" timeLoss="1.67" rerouteNo="0" devices="tripinfo_p_80" vType="DEFAULT_VEHTYPE" speedFactor="1.06" vaporized=""/>
    <tripinfo id="p_69.1" depart="104.00" departLane="318210395_1" departPos="54.80" departSpeed="12.42" departDelay="0.50" arrival="161.00" arrivalLane="-142575658#0_1" arrivalPos="104.76" arrivalSpeed="12.33" duration="57.00" routeLength="513.29" waitingTime="4.00" waitingCount="1" stopTime="0.00" timeLoss="14.12" rerouteNo="0" devices="tripinfo_p_69.1" vType="DEFAULT_VEHTYPE" speedFactor="0.89" vaporized=""/>
    <tripinfo id="p_69" depart="104.00" departLane="318210395_1" departPos="7.04" departSpeed="13.64" departDelay="0.50" arrival="162.00" arrivalLane="-142575658#0_1" arrivalPos="104.76" arrivalSpeed="13.16" duration="58.00" routeLength="561.05" waitingTime="3.00" waitingCount="1" stopTime="0.00" timeLoss="15.91" rerouteNo="0" devices="tripinfo_p_69" vType="DEFAULT_VEHTYPE" speedFactor="0.98" vaporized=""/>
    <tripinfo id="t_4" depart="32.00" departLane="334308447#1_1" departPos="57.93" departSpeed="14.27" departDelay="0.00" arrival="163.00" arrivalLane="143308549#1_2" arrivalPos="175.01" arrivalSpeed="13.84" duration="131.00" routeLength="815.58" waitingTime="53.00" waitingCount="1" stopTime="0.00" timeLoss="70.86" rerouteNo="0" devices="tripinfo_t_4" vType="t__truck" speedFactor="1.03" vaporized=""/>
    <tripinfo id="p_24" depart="36.00" departLane="-283317455#1_1" departPos="34.97" departSpeed="14.67" departDelay="0.00" arrival="165.00" arrivalLane="142575693#2_1" arrivalPos="49.41" arrivalSpeed="14.60" duration="129.00" routeLength="1356.04" waitingTime="10.00" waitingCount="2" stopTime="0.00" timeLoss="33.31" rerouteNo="0" devices="tripinfo_p_24" vType="DEFAULT_VEHTYPE" speedFactor="1.06" vaporized=""/>
    <tripinfo id="p_40" depart="60.00" departLane="-142575656#6_1" departPos="19.41" departSpeed="14.38" departDelay="0.00" arrival="167.00" arrivalLane="670062902#3_1" arrivalPos="52.47" arrivalSpeed="15.10" duration="107.00" routeLength="828.66" waitingTime="24.00" waitingCount="2" stopTime="0.00" timeLoss="54.02" rerouteNo="0" devices="tripinfo_p_40" vType="DEFAULT_VEHTYPE" speedFactor="1.16" vaporized=""/>
    <tripinfo id="p_12" depart="18.00" departLane="-38915290#0_1" departPos="4.51" departSpeed="15.22" departDelay="0.00" arrival="169.00" arrivalLane="-142575709_1" arrivalPos="81.51" arrivalSpeed="14.76" duration="151.00" routeLength="1330.51" waitingTime="44.00" waitingCount="2" stopTime="0.00" timeLoss="61.57" rerouteNo="0" devices="tripinfo_p_12" vType="DEFAULT_VEHTYPE" speedFactor="1.10" vaporized=""/>
    <tripinfo id="p_101" depart="152.00" departLane="314415495#13_1" departPos="11.69" departSpeed="6.27" departDelay="0.50" arrival="173.00" arrivalLane="-314415495#8_1" arrivalPos="34.21" arrivalSpeed="13.23" duration="21.00" routeLength="227.51" waitingTime="0.00" waitingCount="0" stopTime="0.00" timeLoss="3.87" rerouteNo="0" devices="tripinfo_p_101" vType="DEFAULT_VEHTYPE" speedFactor="1.02" vaporized=""/>
    <tripinfo id="t_3.1" depart="24.00" departLane="135777010#1_1" departPos="58.80" departSpeed="13.91" departDelay="0.00" arrival="173.00" arrivalLane="-142575688#3_1" arrivalPos="20.34" arrivalSpeed="9.55" duration="149.00" routeLength="1228.70" waitingTime="22.00" waitingCount="2" stopTime="0.00" timeLoss="56.32" rerouteNo="0" devices="tripinfo_t_3.1" vType="t__truck" speedFactor="1.00" vaporized=""/>
    <tripinfo id="p_45" depart="69.00" departLane="142575656#6_1" departPos="27.10" departSpeed="6.21" departDelay="1.50" arrival="174.00" arrivalLane="-318210378#0_1" arrivalPos="24.63" arrivalSpeed="11.33" duration="105.00" routeLength="418.37" waitingTime="52.00" waitingCount="2" stopTime="0.00" timeLoss="70.39" rerouteNo="0" devices="tripinfo_p_45" vType="DEFAULT_VEHTYPE" speedFactor="0.94" vaporized=""/>
    <tripinfo id="p_42" depart="63.00" departLane="143308505#1_1" departPos="2.47" departSpeed="4.45" departDelay="0.00" arrival="175.00" arrivalLane="-142575673#0_1" arrivalPos="55.79" arrivalSpeed="14.38" duration="112.00" routeLength="1056.92" waitingTime="7.00" waitingCount="2" stopTime="0.00" timeLoss="38.02" rerouteNo="0" devices="tripinfo_p_42" vType="DEFAULT_VEHTYPE" speedFactor="1.10" vaporized=""/>
    <tripinfo id="p_29" depart="44.00" departLane="-142575656#5_1" departPos="0.89" departSpeed="8.65" departDelay="0.50" arrival="180.00" arrivalLane="52081116#6_1" arrivalPos="0.20" arrivalSpeed="6.56" duration="136.00" routeLength="1124.35" waitingTime="4.00" waitingCount="1" stopTime="0.00" timeLoss="24.02" rerouteNo="0" devices="tripinfo_p_29" vType="DEFAULT_VEHTYPE" speedFactor="0.83" vaporized=""/>
    <tripinfo id="p_80.1" depart="120.00" departLane="48858193#0_2" departPos="24.10" departSpeed="10.79" departDelay="0.00" arrival="180.00" arrivalLane="-318210362_1" arrivalPos="20.43" arrivalSpeed="10.46" duration="60.00" routeLength="599.86" waitingTime="0.00" waitingCount="0" stopTime="0.00" timeLoss="3.61" rerouteNo="0" devices="tripinfo_p_80.1" vType="DEFAULT_VEHTYPE" speedFactor="0.78" vaporized=""/>
    <tripinfo id="p_64" depart="96.00" departLane="48858193#0_1" departPos="13.64" departSpeed="14.98" departDelay="0.00" arrival="182.00" arrivalLane="-142575656#14_1" arrivalPos="34.87" arrivalSpeed="14.40" duration="86.00" routeLength="1095.09" waitingTime="0.00" waitingCount="0" stopTime="0.00" timeLoss="10.71" rerouteNo="0" devices="tripinfo_p_64" vType="DEFAULT_VEHTYPE" speedFactor="1.08" vaporized=""/>
    <tripinfo id="p_101.1" depart="154.00" departLane="314415495#13_1" departPos="4.78" departSpeed="7.19" departDelay="2.50" arrival="182.00" arrivalLane="-314415495#8_1" arrivalPos="34.21" arrivalSpeed="13.50" duration="28.00" routeLength="234.42" waitingTime="4.00" waitingCount="1" stopTime="0.00" timeLoss="10.44" rerouteNo="0" devices="tripinfo_p_101.1" vType="DEFAULT_VEHTYPE" speedFactor="1.04" vaporized=""/>
    <tripinfo id="p_29.1" depart="47.00" departLane="-142575656#5_1" departPos="5.28" departSpeed="2.97" departDelay="3.50" arrival="183.00" arrivalLane="52081116#6_1" arrivalPos="0.20" arrivalSpeed="9.25" duration="136.00" routeLength="1119.96" waitingTime="11.00" waitingCount="2" stopTime="0.00" timeLoss="52.60" rerouteNo="0" devices="tripinfo_p_29.1" vType="DEFAULT_VEHTYPE" speedFactor="1.12" vaporized=""/>
    <tripinfo id="p_45.1" depart="71.00" departLane="142575656#6_1" departPos="3.72" departSpeed="9.47" departDelay="3.50" arrival="183.00" arrivalLane="-318210378#0_1" arrivalPos="24.63" arrivalSpeed="9.56" duration="112.00" routeLength="441.75" waitingTime="50.00" waitingCount="3" stopTime="0.00" timeLoss="79.15" rerouteNo="0" devices="tripinfo_p_45.1" vType="DEFAULT_VEHTYPE" speedFactor="1.05" vaporized=""/>
    <tripinfo id="p_64.1" depart="96.00" departLane="48858193#0_1" departPos="2.13" departSpeed="11.82" departDelay="0.00" arrival="185.00" arrivalLane="-142575656#14_1" arrivalPos="34.87" arrivalSpeed="14.64" duration="89.00" routeLength="1106.60" waitingTime="0.00" waitingCount="0" stopTime="0.00" timeLoss="14.40" rerouteNo="0" devices="tripinfo_p_64.1" vType="DEFAULT_VEHTYPE" speedFactor="1.10" vaporized=""/>
    <tripinfo id="t_1.1" depart="8.00" departLane="-135777010#2_1" departPos="32.09" departSpeed="14.10" departDelay="0.00" arrival="187.00" arrivalLane="-142575688#0_1" arrivalPos="43.21" arrivalSpeed="10.74" duration="179.00" routeLength="1205.12" waitingTime="42.00" waitingCount="3" stopTime="0.00" timeLoss="89.44" rerouteNo="0" devices="tripinfo_t_1.1" vType="t__truck" speedFactor="1.01" vaporized=""/>
    <tripinfo id="p_52" depart="78.00" departLane="142575684#4_1" departPos="45.86" departSpeed="11.89" departDelay="0.00" arrival="187.00" arrivalLane="143308527#3_1" arrivalPos="0.83" arrivalSpeed="11.61" duration="109.00" routeLength="1022.60" waitingTime="4.00" waitingCount="1" stopTime="0.00" timeLoss="18.39" rerouteNo="0" devices="tripinfo_p_52" vType="DEFAULT_VEHTYPE" speedFactor="0.86" vaporized=""/>
    <tripinfo id="p_2" depart="3.00" departLane="52081116#5_1" departPos="0.12" departSpeed="9.68" departDelay="0.00" arrival="191.00" arrivalLane="-190083616_1" arrivalPos="92.88" arrivalSpeed="15.15" duration="188.00" routeLength="1862.24" waitingTime="25.00" waitingCount="2" stopTime="0.00" timeLoss="63.11" rerouteNo="0" devices="tripinfo_p_2" vType="DEFAULT_VEHTYPE" speedFactor="1.16" vaporized=""/>
    <tripinfo id="p_74" depart="111.00" departLane="-314415495#12_1" departPos="10.74" departSpeed="5.36" departDelay="0.00" arrival="191.00" arrivalLane="670062907#1_2" arrivalPos="18.08" arrivalSpeed="12.46" duration="80.00" routeLength="425.21" waitingTime="36.00" waitingCount="1" stopTime="0.00" timeLoss="49.86" rerouteNo="0" devices="tripinfo_p_74" vType="DEFAULT_VEHTYPE" speedFactor="1.07" vaporized=""/>
    <tripinfo id="t_1" depart="8.00" departLane="-135777010#2_1" departPos="4.06" departSpeed="14.48" departDelay="0.00" arrival="192.00" arrivalLane="-142575688#0_1" arrivalPos="43.21" arrivalSpeed="10.22" duration="184.00" routeLength="1233.15" waitingTime="54.00" waitingCount="1" stopTime="0.00" timeLoss="93.89" rerouteNo="0" devices="tripinfo_t_1" vType="t__truck" speedFactor="1.04" vaporized=""/>
    <tripinfo id="p_51" depart="77.00" departLane="-334308447#2_1" departPos="119.61" departSpeed="11.35" departDelay="0.50" arrival="192.00" arrivalLane="142575693#4_1" arrivalPos="1.84" arrivalSpeed="11.32" duration="115.00" routeLength="1032.82" waitingTime="2.00" waitingCount="1" stopTime="0.00" timeLoss="22.13" rerouteNo="0" devices="tripinfo_p_51" vType="DEFAULT_VEHTYPE" speedFactor="0.82" vaporized=""/>